LAMMPS data file via write_data, version 28 Feb 2019, timestep = 50000

2278 atoms
10 atom types
1525 bonds
11 bond types
788 angles
21 angle types
43 dihedrals
26 dihedral types
4 impropers
2 improper types

-1.3956964954603913e+01 1.3956964954603913e+01 xlo xhi
-1.3956964954603913e+01 1.3956964954603913e+01 ylo yhi
-1.3956964954603913e+01 1.3956964954603913e+01 zlo zhi

Masses

1 1.008
2 1.008
3 1.008
4 1.008
5 12.011
6 12.011
7 12.011
8 14.007
9 15.999
10 15.999

Pair Coeffs # lj/charmmfsw/coul/long

1 0.046 0.400014 0.046 0.400014
2 0.024 2.38761 0.024 2.38761
3 0.022 2.35197 0.022 2.35197
4 0.046 0.400014 0.046 0.400014
5 0.11 3.56359 0.11 3.56359
6 0.032 3.56359 0.01 3.38542
7 0.078 3.63487 0.01 3.38542
8 0.2 3.29633 0.2 2.76179
9 0.12 3.02906 0.12 2.49452
10 0.1521 3.15057 0.1521 3.15057

Bond Coeffs # harmonic

1 250 1.49
2 250 1.49
3 222.5 1.538
4 322 1.111
5 330 1.08
6 450 0.9572
7 370 1.345
8 320 1.43
9 320 1.43
10 440 0.997
11 620 1.23

Angle Coeffs # charmm

1 50 120 0 0
2 52 108 0 0
3 50 120 0 0
4 34 123 0 0
5 35 117 0 0
6 35 117 0 0
7 33 109.5 30 2.163
8 33.43 110.1 22.53 2.179
9 35.5 108.4 5.4 1.802
10 50 109.5 0 0
11 35 111 0 0
12 55 104.52 0 0
13 80 116.5 0 0
14 80 116.5 0 0
15 50 107 0 0
16 70 113.5 0 0
17 48 108 0 0
18 51.5 109.5 0 0
19 80 121 0 0
20 80 121 0 0
21 80 122.5 0 0

Dihedral Coeffs # charmmfsw

1 0.2 1 180 1
2 1.6 1 0 1
3 2.5 2 180 0
4 1.8 1 0 1
5 1.6 1 0 1
6 2.5 2 180 0
7 2.5 2 180 1
8 2.5 2 180 1
9 0 1 0 1
10 0 1 0 1
11 0 3 0 1
12 0 3 0 1
13 0 1 0 1
14 0 1 0 1
15 0 1 0 1
16 0 1 0 1
17 0.6 1 0 1
18 0 3 0 1
19 1.4 1 0 1
20 0 1 0 1
21 0 1 0 1
22 0 3 180 1
23 2.5 2 180 1
24 2.5 2 180 1
25 2.5 2 180 1
26 0.2 3 0 1

Improper Coeffs # harmonic

1 20 0
2 120 0

Atoms # full

593 191 10 -8.3399999999999996e-01 -1.1902106714014295e+01 -7.0852864024045994e+00 -1.5977330709359716e+00 0 0 -1
1995 658 4 4.1699999999999998e-01 -1.1214091455914438e+01 -5.1177456427211929e+00 -5.0274610968834761e+00 1 1 1
1994 658 10 -8.3399999999999996e-01 -1.1660367790228561e+01 -5.8629840194863174e+00 -5.4859941700110681e+00 1 1 1
2084 688 10 -8.3399999999999996e-01 1.3803463011569177e+01 -9.4383841361282244e+00 -7.5159931778777169e+00 -3 0 1
1996 658 4 4.1699999999999998e-01 -1.1143834628878464e+01 -5.8388338447795132e+00 -6.3511073553581960e+00 1 1 1
2086 688 4 4.1699999999999998e-01 1.3111874006360592e+01 -8.7659626701570623e+00 -7.4335577543553297e+00 -3 0 1
1894 624 4 4.1699999999999998e-01 -7.7195776018075426e+00 -6.2328301245311986e+00 -9.7859638109781244e+00 1 0 1
1921 633 4 4.1699999999999998e-01 -8.0334321063062006e+00 -4.1616348196194810e+00 1.2810813517532063e+01 1 1 0
1232 404 10 -8.3399999999999996e-01 -8.2527582226069960e+00 -6.1468247267431870e+00 -4.2966774634803713e+00 0 1 0
815 265 10 -8.3399999999999996e-01 -1.1482697954845671e+01 -1.3662252912852020e+01 -9.8666840643542528e+00 1 2 0
817 265 4 4.1699999999999998e-01 -1.1764642299266011e+01 -1.2965177043673474e+01 -1.0532875814760786e+01 1 2 0
816 265 4 4.1699999999999998e-01 -1.0820172640239088e+01 -1.3176807688782262e+01 -9.3275819788010725e+00 1 2 0
1193 391 10 -8.3399999999999996e-01 -1.0562798382418299e+01 -8.6048568551007243e+00 -3.5294667589259117e+00 0 1 2
1195 391 4 4.1699999999999998e-01 -9.9504432952712705e+00 -8.0036424770309686e+00 -4.0007971481227997e+00 0 1 2
405 128 4 4.1699999999999998e-01 -1.0791414090723814e+01 -9.0514116019873825e+00 -8.9097811980603794e+00 0 -1 -1
404 128 10 -8.3399999999999996e-01 -1.0506276664501794e+01 -9.1361027237377250e+00 -7.9133096629902706e+00 0 -1 -1
285 88 4 4.1699999999999998e-01 -9.2510504279938477e+00 -5.9294102470793835e+00 -7.4975014604540000e+00 1 0 0
406 128 4 4.1699999999999998e-01 -1.0749275273386555e+01 -8.2069492708013723e+00 -7.7055935599351733e+00 0 -1 -1
899 293 10 -8.3399999999999996e-01 -7.7732623317230427e+00 -5.3651693912775986e+00 -1.3266494552409345e+01 0 1 1
901 293 4 4.1699999999999998e-01 -7.4326056227597972e+00 -6.1011772898422674e+00 -1.3781121623779569e+01 0 1 1
900 293 4 4.1699999999999998e-01 -6.9614663022160741e+00 -5.0921237783970792e+00 -1.2921253261982462e+01 0 1 1
286 88 4 4.1699999999999998e-01 -9.9215711231287873e+00 -5.2616069360324378e+00 -8.5857234789457397e+00 1 0 0
250 76 4 4.1699999999999998e-01 -9.9784340390605912e+00 -8.8125243231391153e+00 -1.1013416301431914e+01 0 1 0
248 76 10 -8.3399999999999996e-01 -9.2786255381183338e+00 -9.4025895536389896e+00 -1.0778742618018599e+01 0 1 0
284 88 10 -8.3399999999999996e-01 -1.0153641754700566e+01 -5.7681937391132774e+00 -7.8061758391641378e+00 1 0 0
249 76 4 4.1699999999999998e-01 -8.5802903219433109e+00 -8.7413228072492650e+00 -1.0561472936119836e+01 0 1 0
1194 391 4 4.1699999999999998e-01 -1.1023852053441630e+01 -9.0097764859836147e+00 -4.3685249645147710e+00 0 1 2
46 8 4 4.1699999999999998e-01 -1.2039531279184285e+01 -6.7425512019063962e+00 -1.0622396076949492e+01 0 0 0
44 8 10 -8.3399999999999996e-01 -1.1348641091763323e+01 -7.0936128480722163e+00 -1.1250141687205367e+01 0 0 0
45 8 4 4.1699999999999998e-01 -1.1255151296460882e+01 -6.3873190577677885e+00 -1.1875384500352702e+01 0 0 0
2198 726 10 -8.3399999999999996e-01 -1.2485774228123377e+01 -9.3160081695555697e+00 -1.0042070660924328e+01 1 1 0
2200 726 4 4.1699999999999998e-01 -1.2355582242514039e+01 -8.5631584319139229e+00 -1.0662162873520341e+01 1 1 0
2108 696 10 -8.3399999999999996e-01 -8.7146827437621823e+00 -4.3539899487671949e+00 -1.0009578292295425e+01 -1 0 1
2109 696 4 4.1699999999999998e-01 -8.5844435593554067e+00 -3.7180859482898327e+00 -1.0759200853098809e+01 -1 0 1
2110 696 4 4.1699999999999998e-01 -8.4375088094191995e+00 -3.7700100990609293e+00 -9.2516564959440366e+00 -1 0 1
2199 726 4 4.1699999999999998e-01 -1.2913617435402964e+01 -8.8383164562968695e+00 -9.3223053583906221e+00 1 1 0
422 134 10 -8.3399999999999996e-01 -4.7719961938842044e+00 -1.0196893360604696e+01 1.2725056544118674e+01 0 0 0
423 134 4 4.1699999999999998e-01 -4.7207280041292208e+00 -1.0468572108727450e+01 1.3678317411844573e+01 0 0 0
1233 404 4 4.1699999999999998e-01 -8.0903458938126214e+00 -5.7360055809995156e+00 -5.1607415060055288e+00 0 1 0
1892 624 10 -8.3399999999999996e-01 -7.9444773234490498e+00 -7.0727502899390400e+00 -1.0323228607059770e+01 1 0 1
1893 624 4 4.1699999999999998e-01 -8.6343704029121078e+00 -6.7684005737470496e+00 -1.0924025684329134e+01 1 0 1
1234 404 4 4.1699999999999998e-01 -7.3921913861726045e+00 -6.3222256124690288e+00 -3.9741114458436559e+00 0 1 0
1743 574 4 4.1699999999999998e-01 -6.3685341506527147e+00 -8.1121337671192002e+00 -1.0620791289207682e+01 0 2 -1
1744 574 4 4.1699999999999998e-01 -4.8970766660833078e+00 -7.9165280225723773e+00 -1.0903839771899440e+01 0 2 -1
1742 574 10 -8.3399999999999996e-01 -5.5822651335884199e+00 -8.6195750491717469e+00 -1.0803989524483244e+01 0 2 -1
203 61 10 -8.3399999999999996e-01 -6.2017237191065941e+00 -8.4299876113315886e+00 -7.3046512144858307e+00 -1 0 -1
204 61 4 4.1699999999999998e-01 -5.3650057301274856e+00 -8.5103138149979021e+00 -7.7636945063572744e+00 -1 0 -1
205 61 4 4.1699999999999998e-01 -6.7265158328670758e+00 -9.2566331451026116e+00 -7.4718584871861005e+00 -1 0 -1
2131 703 4 4.1699999999999998e-01 -1.1510564582004651e+01 -1.1449859172280924e+01 -1.2558428466106704e+01 1 1 1
2085 688 4 4.1699999999999998e-01 1.3488545659149290e+01 -1.0099274236092716e+01 -6.8847714395071788e+00 -3 0 1
772 250 4 4.1699999999999998e-01 -1.1050550980953821e+01 1.2332249767409900e+01 -9.7086673095608731e+00 0 0 1
2241 740 4 4.1699999999999998e-01 -1.2745445050639722e+01 -9.7335824825260211e+00 -6.0729059016308229e+00 0 2 0
2240 740 10 -8.3399999999999996e-01 -1.2189470381392043e+01 -1.0030375818862629e+01 -5.3327493163569084e+00 0 2 0
2242 740 4 4.1699999999999998e-01 -1.1648497955755859e+01 -1.0751392998715017e+01 -5.6756572474141773e+00 0 2 0
2036 672 10 -8.3399999999999996e-01 -6.1677195194484646e+00 -1.0780333023217157e+01 -9.2723894235582662e+00 0 2 1
90 23 4 4.1699999999999998e-01 -4.7933990041839003e+00 -1.0165151142836795e+01 -1.1720126065552455e+01 0 -1 0
289 89 4 4.1699999999999998e-01 -7.1714174560922457e+00 -1.0855491972422577e+01 -5.5396714137614094e+00 -1 0 0
287 89 10 -8.3399999999999996e-01 -7.7880467800450361e+00 -1.0260625063054352e+01 -5.1426281128348670e+00 -1 0 0
288 89 4 4.1699999999999998e-01 -8.5888567135996432e+00 -1.0722678049257665e+01 -5.1929683716925474e+00 -1 0 0
1920 633 4 4.1699999999999998e-01 -8.0775137789544615e+00 -3.0373746144163327e+00 1.1865358669812144e+01 1 1 0
1919 633 10 -8.3399999999999996e-01 -7.8376554613124512e+00 -3.9946000666291592e+00 1.1900390829862205e+01 1 1 0
2130 703 4 4.1699999999999998e-01 -1.2833511169966581e+01 -1.2182442937286570e+01 -1.2663603474859794e+01 1 1 1
595 191 4 4.1699999999999998e-01 -1.1428477036869396e+01 -7.8082070570553368e+00 -2.0245972371914451e+00 0 0 -1
1246 408 4 4.1699999999999998e-01 -1.3034956105371840e+01 -1.3573662943739540e+01 -9.1192734383695875e+00 -1 1 2
1124 368 10 -8.3399999999999996e-01 1.3305111969374222e+01 -1.0726151945380586e+01 -1.0615795181359863e+01 0 1 2
1125 368 4 4.1699999999999998e-01 1.3368517709581026e+01 -1.0843232744696575e+01 -1.1570031274543521e+01 0 1 2
1126 368 4 4.1699999999999998e-01 -1.3698294809645375e+01 -1.0452337349872543e+01 -1.0381136018669908e+01 1 1 2
806 262 10 -8.3399999999999996e-01 1.3697835063299033e+01 -6.7093922829386816e+00 -6.1746099384704465e+00 -1 1 -2
808 262 4 4.1699999999999998e-01 1.3101024296266031e+01 -6.4797402925804715e+00 -5.4459350954014916e+00 -1 1 -2
939 306 4 4.1699999999999998e-01 -1.2801077158071374e+01 -5.6191463654490335e+00 -8.5231236758359845e+00 1 -1 0
938 306 10 -8.3399999999999996e-01 -1.3122566677895630e+01 -6.4433765840936283e+00 -8.8614969928555407e+00 1 -1 0
940 306 4 4.1699999999999998e-01 -1.3512472560093366e+01 -6.8440529765304197e+00 -8.0388281678583553e+00 1 -1 0
807 262 4 4.1699999999999998e-01 -1.3322940071278664e+01 -6.4901508944460620e+00 -5.6994053784273238e+00 0 1 -2
1915 631 4 4.1699999999999998e-01 -8.7979421146635772e+00 -1.0924898927763536e+01 -1.0841891639773733e+01 1 1 -1
599 193 10 -8.3399999999999996e-01 -9.9726902831373376e+00 -1.1811466236200513e+01 -8.4790262032609114e+00 1 0 -1
601 193 4 4.1699999999999998e-01 -1.0274165450856923e+01 -1.0869080329392368e+01 -8.3031406596814534e+00 1 0 -1
600 193 4 4.1699999999999998e-01 -9.7917488170892817e+00 -1.1951886700520017e+01 -7.5219265258179808e+00 1 0 -1
2038 672 4 4.1699999999999998e-01 -5.8821526568549682e+00 -1.0156110797994563e+01 -9.9649504440309471e+00 0 2 1
476 152 10 -8.3399999999999996e-01 -9.9832562572551389e+00 -1.1958536775400288e+01 -5.4911974932589214e+00 0 1 -2
105 28 4 4.1699999999999998e-01 -5.6766505125370621e+00 -8.2960073879820051e+00 -5.3840927491976363e+00 2 0 0
1803 594 4 4.1699999999999998e-01 -7.0789929725036451e+00 -1.2947023339625703e+01 -7.2558364288400972e+00 0 0 1
1802 594 10 -8.3399999999999996e-01 -6.7592234970481853e+00 -1.2103774027761231e+01 -6.8762555472092428e+00 0 0 1
2246 742 10 -8.3399999999999996e-01 -3.6421402351937893e+00 -1.1012880461638000e+01 -7.2952181054593757e+00 0 0 1
2247 742 4 4.1699999999999998e-01 -4.1178690775365467e+00 -1.1857702767759967e+01 -7.4213869019703775e+00 0 0 1
1086 355 4 4.1699999999999998e-01 -1.3698650273474771e+01 -5.0844357779830833e+00 -1.7195648013111384e+00 1 0 1
477 152 4 4.1699999999999998e-01 -1.0166703339007050e+01 -1.2840760065370313e+01 -5.7754374146774499e+00 0 1 -2
478 152 4 4.1699999999999998e-01 -9.8111362929261396e+00 -1.2057111591995472e+01 -4.5933830895720558e+00 0 1 -2
1369 449 4 4.1699999999999998e-01 1.2791552238944510e+01 -1.1464752300997091e+01 -4.9399328522932642e+00 1 2 -1
854 278 10 -8.3399999999999996e-01 1.3177004824281932e+01 -1.2227615652778393e+01 -1.2968885435651156e+01 0 0 0
2129 703 10 -8.3399999999999996e-01 -1.1987777721601226e+01 -1.2228897137976317e+01 -1.2199476475217326e+01 1 1 1
33 4 4 4.1699999999999998e-01 -6.8990643019418680e+00 -9.5573801330691097e+00 -1.2179298105426300e+01 0 0 0
2072 684 10 -8.3399999999999996e-01 -3.7850668836388177e+00 -6.6793265397380965e+00 -1.0859599005687024e+01 -1 2 1
2073 684 4 4.1699999999999998e-01 -3.5468558461598096e+00 -6.4536279145636124e+00 -9.9061447894118455e+00 -1 2 1
1008 329 4 4.1699999999999998e-01 -9.6529236931438689e-01 -9.3086589531367494e+00 1.3679229421047564e+01 1 0 -1
1962 647 4 4.1699999999999998e-01 -1.0770970830206554e+00 -8.5097492228075158e+00 -6.9501196803958356e+00 -2 0 1
91 23 4 4.1699999999999998e-01 -3.6758829701882370e+00 -1.1183437994497620e+01 -1.1879619460837366e+01 0 -1 0
1974 651 4 4.1699999999999998e-01 -2.6767911300875955e+00 -7.4533789870185334e+00 -5.3625445236271627e+00 0 1 0
1973 651 10 -8.3399999999999996e-01 -3.1214072714541086e+00 -8.2128242074948901e+00 -5.7847919482679355e+00 0 1 0
1144 374 4 4.1699999999999998e-01 -4.3336299302842818e+00 -4.7326854517092531e+00 -1.2180881291841242e+01 -1 1 -1
1871 617 10 -8.3399999999999996e-01 -2.1513524999389446e+00 -1.3594250389365362e+01 -1.2536997756666604e+01 1 1 0
1873 617 4 4.1699999999999998e-01 -1.3750828493652900e+00 -1.2976944073476892e+01 -1.2770692404576174e+01 1 1 0
1872 617 4 4.1699999999999998e-01 -2.6150767092552094e+00 -1.3623962574800066e+01 -1.3448402371417707e+01 1 1 0
89 23 10 -8.3399999999999996e-01 -4.4195932127219297e+00 -1.0772310802609750e+01 -1.2409313705996851e+01 0 -1 0
1077 352 4 4.1699999999999998e-01 -3.3881678086458464e+00 -1.1149343000878996e+01 -9.2694574995320433e+00 1 1 1
1078 352 4 4.1699999999999998e-01 -2.2032008552896798e+00 -1.1445445797379410e+01 -9.9087880884716650e+00 1 1 1
2074 684 4 4.1699999999999998e-01 -2.9799351234707618e+00 -7.1453272573893862e+00 -1.1182460219218799e+01 -1 2 1
1007 329 10 -8.3399999999999996e-01 -8.1940318576757498e-01 -8.8416595492932366e+00 1.2814450236962825e+01 1 0 -1
1009 329 4 4.1699999999999998e-01 -4.8366509816926495e-01 -9.5577094840107826e+00 1.2256944246588601e+01 1 0 -1
1975 651 4 4.1699999999999998e-01 -3.7910755982665911e+00 -8.4838486176597225e+00 -5.1131350256848282e+00 0 1 0
927 302 4 4.1699999999999998e-01 2.2061323529845023e+00 -7.7369982406199886e+00 -7.5603812706939557e+00 0 -1 -2
1963 647 4 4.1699999999999998e-01 -2.1613501170732654e+00 -9.0788576466477835e+00 -7.7172109693240003e+00 -2 0 1
1961 647 10 -8.3399999999999996e-01 -1.2492057903123222e+00 -8.7834635428753280e+00 -7.8266879056887184e+00 -2 0 1
1460 480 10 -8.3399999999999996e-01 -3.8560476212376749e-01 -1.2208045336521877e+01 -7.0096519105962480e+00 0 0 0
776 252 10 -8.3399999999999996e-01 1.3458533581623175e+00 -1.3187031484208909e+01 -1.1487306203037733e+01 0 0 1
778 252 4 4.1699999999999998e-01 1.4954866847653054e+00 -1.3881618006894655e+01 -1.0837072142142503e+01 0 0 1
777 252 4 4.1699999999999998e-01 1.7643724249345674e+00 -1.3636145625337672e+01 -1.2263833280065963e+01 0 0 1
1462 480 4 4.1699999999999998e-01 -5.3880016589781832e-01 -1.1647980285288176e+01 -7.7779905500972450e+00 0 0 0
820 266 4 4.1699999999999998e-01 -1.5524273641698159e+00 -8.3932766828651388e+00 -9.7923179951712314e+00 0 1 0
818 266 10 -8.3399999999999996e-01 -1.2920379918371427e+00 -8.2271911353395044e+00 -1.0674037319016728e+01 0 1 0
819 266 4 4.1699999999999998e-01 -5.0661757387472406e-01 -8.7622323440538814e+00 -1.0770050343495635e+01 0 1 0
1745 575 10 -8.3399999999999996e-01 2.2779718330940213e-01 -4.3282296122872896e+00 -1.2783486153140414e+01 -1 0 1
1461 480 4 4.1699999999999998e-01 -9.2976877731743635e-01 -1.2997004681532681e+01 -7.2457331674002461e+00 0 0 0
531 170 4 4.1699999999999998e-01 3.8140645193888112e-01 -1.1786551957600757e+01 -1.0379497031102787e+01 1 0 0
530 170 10 -8.3399999999999996e-01 -1.1360726744176652e-01 -1.1140594049149843e+01 -9.8486957846586485e+00 1 0 0
532 170 4 4.1699999999999998e-01 4.5876977078154191e-01 -1.0451375169624260e+01 -9.5282669840696954e+00 1 0 0
1986 655 4 4.1699999999999998e-01 -2.6670461489877084e-01 -1.0915802359313497e+01 -1.3092777775676939e+01 0 -1 -1
1987 655 4 4.1699999999999998e-01 2.1694009425050709e-01 -1.0100502459306284e+01 -1.2036749722395300e+01 0 -1 -1
1985 655 10 -8.3399999999999996e-01 -5.1187555632484738e-01 -1.0206216262957309e+01 -1.2594934174205401e+01 0 -1 -1
2187 722 4 4.1699999999999998e-01 -1.4379854293574450e+00 1.1068068396192009e+01 -1.2507119950132719e+01 1 1 0
2135 705 10 -8.3399999999999996e-01 4.8689446878068079e+00 1.3788211179776424e+01 -1.0310985655905686e+01 -1 -1 2
928 302 4 4.1699999999999998e-01 2.6128623528936981e+00 -6.8893659387489254e+00 -8.7524714879643657e+00 0 -1 -2
926 302 10 -8.3399999999999996e-01 1.9346251725519039e+00 -6.9484415943544047e+00 -8.0721634405238127e+00 0 -1 -2
611 197 10 -8.3399999999999996e-01 2.0075499710017954e+00 -9.0492497522069684e+00 -1.1047536318291719e+01 0 0 0
612 197 4 4.1699999999999998e-01 2.7393076689910831e+00 -8.3179586791290117e+00 -1.0946235200092904e+01 0 0 0
613 197 4 4.1699999999999998e-01 2.5471198735492653e+00 -9.6621017863501493e+00 -1.0493339924057143e+01 0 0 0
721 233 4 4.1699999999999998e-01 -1.3385235551854304e+00 1.2558171063407920e+01 -7.8025895099877012e+00 0 0 -1
720 233 4 4.1699999999999998e-01 -2.4717742817614834e+00 1.2968597284518095e+01 -7.0177809840817504e+00 0 0 -1
719 233 10 -8.3399999999999996e-01 -1.7109948888007196e+00 1.3355767433004493e+01 -7.3895506290232982e+00 0 0 -1
1947 642 4 4.1699999999999998e-01 9.7708707571519859e-01 -7.7834711552055573e+00 -3.0362736479791828e+00 1 1 0
1946 642 10 -8.3399999999999996e-01 5.8191871598853240e-01 -7.4891537920071691e+00 -3.8117633717342017e+00 1 1 0
1948 642 4 4.1699999999999998e-01 8.9847536961977070e-01 -8.2594943535937659e+00 -4.2800261492783971e+00 1 1 0
1746 575 4 4.1699999999999998e-01 3.1675438303421011e-01 -5.2738251327111083e+00 -1.2912657577007375e+01 -1 0 1
782 254 10 -8.3399999999999996e-01 4.5929436999427740e+00 -9.1629302017799468e+00 -6.9573059023125596e+00 0 1 -1
783 254 4 4.1699999999999998e-01 4.7243138537663487e+00 -8.3710401552005500e+00 -6.3571967743721451e+00 0 1 -1
1076 352 10 -8.3399999999999996e-01 -3.1367198332908632e+00 -1.1265733443477009e+01 -1.0168156053595260e+01 1 1 1
784 254 4 4.1699999999999998e-01 5.2074172855126566e+00 -8.9567098363056630e+00 -7.7359987310815770e+00 0 1 -1
2136 705 4 4.1699999999999998e-01 5.0120842057931387e+00 -1.3743773571924111e+01 -1.1249032413547637e+01 -1 0 2
519 166 4 4.1699999999999998e-01 5.0153687771769047e+00 -1.2463213645657396e+01 -1.3946447859548831e+01 0 2 0
195 58 4 4.1699999999999998e-01 -7.4604723602190504e-01 -7.6822359596660554e+00 -1.2591382940112048e+01 -1 0 0
2114 698 10 -8.3399999999999996e-01 1.6032202690961856e+00 1.3810449150803114e+01 -8.6738027734514596e+00 1 0 0
2116 698 4 4.1699999999999998e-01 8.1380057276982853e-01 1.3442404091311777e+01 -8.3313378804846625e+00 1 0 0
1800 593 4 4.1699999999999998e-01 2.9253714357276035e+00 -1.3631765966078301e+01 -1.3932111105801765e+01 -1 -1 1
936 305 4 4.1699999999999998e-01 1.7077743004119128e+00 -9.5991719220878693e+00 -5.6897705622573920e+00 0 0 0
2115 698 4 4.1699999999999998e-01 1.7080640398517897e+00 -1.3284683290323557e+01 -8.2237337665610113e+00 1 1 0
346 108 4 4.1699999999999998e-01 -6.5941184233522803e+00 -5.5350467417247753e+00 -7.5192818592700759e+00 -1 0 0
345 108 4 4.1699999999999998e-01 -7.3308262385533070e+00 -6.8574698510076164e+00 -7.2456894778919567e+00 -1 0 0
344 108 10 -8.3399999999999996e-01 -7.4942389384129147e+00 -5.9036788723549609e+00 -7.5659882951552708e+00 -1 0 0
1814 598 10 -8.3399999999999996e-01 3.0811883601919536e+00 -6.2986569552501903e+00 -4.5922002860569187e+00 -1 0 0
1815 598 4 4.1699999999999998e-01 2.8371794681741296e+00 -7.1490253068222742e+00 -5.0105593312581380e+00 -1 0 0
1951 643 4 4.1699999999999998e-01 2.2121439016473037e+00 -5.2597159398439004e+00 -7.1594295491350630e+00 0 0 -1
1816 598 4 4.1699999999999998e-01 3.8557796907057469e+00 -6.6067282989982283e+00 -4.0711100568086760e+00 -1 0 0
2201 727 10 -8.3399999999999996e-01 -6.2963417726364845e-01 -4.2207760367469689e+00 -7.1934948202514040e+00 1 0 0
2188 722 4 4.1699999999999998e-01 -1.0326215888542940e+00 1.2453207910391830e+01 -1.2083318730041995e+01 1 1 0
1042 340 4 4.1699999999999998e-01 -2.8528114429084361e-01 -1.3202566295838922e+01 1.3165624360829495e+01 0 0 -1
1040 340 10 -8.3399999999999996e-01 -2.4444015532836261e-02 -1.2555310655589668e+01 1.3823989871515925e+01 0 0 -1
1041 340 4 4.1699999999999998e-01 8.5859260965384898e-01 -1.2883842215576298e+01 -1.3681118697511735e+01 0 0 0
1834 604 4 4.1699999999999998e-01 2.1252169516291612e+00 1.0006331273910400e+01 1.3656352206575571e+01 -1 -1 1
1799 593 10 -8.3399999999999996e-01 2.1645837841814615e+00 1.3668717620481280e+01 -1.3914644341665133e+01 -1 -2 1
597 192 4 4.1699999999999998e-01 -4.5827079858078061e+00 -1.2031897645032007e+01 -3.9992412964886466e+00 0 1 0
1585 521 4 4.1699999999999998e-01 -7.8046425736194180e-01 -6.4497279039583297e+00 -4.5076867114495727e+00 0 0 0
1583 521 10 -8.3399999999999996e-01 -1.6148255466885164e+00 -6.0404065783893008e+00 -4.8921306141341940e+00 0 0 0
1584 521 4 4.1699999999999998e-01 -1.2804032909764871e+00 -5.2866834595142009e+00 -5.4188930353573976e+00 0 0 0
39 6 4 4.1699999999999998e-01 -5.0800806777429113e+00 -1.2487249215251010e+01 -9.0431043654087322e+00 0 0 0
2066 682 10 -8.3399999999999996e-01 2.7019162425933896e+00 -1.0807067742141562e+01 -1.3218835883239594e+01 -1 0 1
2068 682 4 4.1699999999999998e-01 2.4640649149391383e+00 -9.9501969234318555e+00 -1.2814718245306015e+01 -1 0 1
116 32 10 -8.3399999999999996e-01 -2.5368938253289812e+00 -4.8316779290534040e+00 -1.3360092243789097e+01 0 0 1
2191 723 4 4.1699999999999998e-01 1.3608479503830166e+01 1.2747169388848667e+01 -6.9962238396376781e+00 1 0 0
2137 705 4 4.1699999999999998e-01 5.3271348891497947e+00 -1.3394471771974770e+01 -9.8101003370384401e+00 -1 0 2
1881 620 4 4.1699999999999998e-01 4.4388242323692015e+00 -1.1202568930054106e+01 -9.5390444073429936e+00 1 -1 -1
1793 591 10 -8.3399999999999996e-01 6.3717899096047983e+00 -8.2116898648682657e+00 -8.9022906188531667e+00 0 0 0
2250 743 4 4.1699999999999998e-01 7.5653697509438604e+00 -1.1728058564469451e+01 -6.6435594234645547e+00 1 1 0
2133 704 4 4.1699999999999998e-01 9.8785716654826263e+00 -7.8845291998926506e+00 -2.6046454994911894e+00 2 1 0
1444 474 4 4.1699999999999998e-01 6.4739596970483699e+00 -8.9217686508241769e+00 -1.2121943670296769e+01 0 0 1
1880 620 10 -8.3399999999999996e-01 3.4577946694422241e+00 -1.1082462155314801e+01 -9.4903353273714313e+00 1 -1 -1
1316 432 10 -8.3399999999999996e-01 1.0757724604157312e+01 -1.0859133669894785e+01 -8.7087380032530444e+00 0 0 1
1318 432 4 4.1699999999999998e-01 1.0962527668206858e+01 -9.9608351777779784e+00 -8.3899025430118055e+00 0 0 1
1244 408 10 -8.3399999999999996e-01 -1.3806961007710843e+01 -1.3154046771205655e+01 -8.6932058717042029e+00 -1 1 2
937 305 4 4.1699999999999998e-01 2.9395039302609280e+00 -9.1722211057309302e+00 -6.3648587703227211e+00 0 0 0
935 305 10 -8.3399999999999996e-01 2.2456145068132489e+00 -8.7683378394480975e+00 -5.8550940037866024e+00 0 0 0
129 36 4 4.1699999999999998e-01 6.3256899270820828e+00 -1.1926903386386794e+01 -8.6054845028820246e+00 -1 2 0
1245 408 4 4.1699999999999998e-01 1.3937725520079940e+01 -1.2415469112800759e+01 -9.2028139116493950e+00 -2 1 2
130 36 4 4.1699999999999998e-01 6.9703639823700509e+00 -1.1611979671212056e+01 -9.9032121304055973e+00 -1 2 0
16 2 9 -5.1000000000000001e-01 1.1002247369114526e+01 -1.1270772230166333e+01 1.3428016510299285e+01 0 0 0
8 2 1 3.1000000000000000e-01 9.3303622760651006e+00 -1.3393483156285663e+01 1.2293114044096944e+01 0 0 0
15 2 5 5.1000000000000001e-01 9.8600731757031479e+00 -1.0819966407596791e+01 1.3712174140661206e+01 0 0 0
13 2 2 8.9999999999999997e-02 9.1247778175614283e+00 -1.3233715588433512e+01 -1.2977351621310406e+01 0 0 1
11 2 7 -2.7000000000000002e-01 8.3350449253922410e+00 -1.2500532583987511e+01 -1.3270878685176807e+01 0 0 1
14 2 2 8.9999999999999997e-02 7.5344553977167994e+00 -1.3166927266883157e+01 -1.3488976064191190e+01 0 0 1
2134 704 4 4.1699999999999998e-01 1.0099230501150723e+01 -6.3655102508805488e+00 -2.5554823283899175e+00 2 1 0
1882 620 4 4.1699999999999998e-01 3.3637674463915115e+00 -1.1016876648996950e+01 -8.5551941028304519e+00 1 -1 -1
1442 474 10 -8.3399999999999996e-01 7.2007939930867249e+00 -8.4196114836628446e+00 -1.2622131593786563e+01 0 0 1
1443 474 4 4.1699999999999998e-01 7.1739958134948463e+00 -7.5353978588118631e+00 -1.2209768176253355e+01 0 0 1
1390 456 4 4.1699999999999998e-01 4.1443731530400623e+00 -1.0210475747989976e+01 -1.1960437614301695e+01 0 1 -1
22 2 2 8.9999999999999997e-02 1.1715886126858079e+01 -9.0804414575319505e+00 -1.2628604975419174e+01 0 0 1
12 2 2 8.9999999999999997e-02 7.9668810842276034e+00 -1.1861051485452972e+01 -1.2449041924247966e+01 0 0 1
1564 514 4 4.1699999999999998e-01 1.1042017368408883e+01 -7.4548566835650822e+00 -8.4550352342604533e+00 0 0 1
1562 514 10 -8.3399999999999996e-01 1.0827468853872110e+01 -8.1529202749318586e+00 -7.8950830159938112e+00 0 0 1
1563 514 4 4.1699999999999998e-01 1.0301042809337153e+01 -7.7093071489651761e+00 -7.2205673825626882e+00 0 0 1
155 45 10 -8.3399999999999996e-01 9.2393478040854102e+00 -7.1403126297992987e+00 -5.7555333676555911e+00 0 0 -1
157 45 4 4.1699999999999998e-01 9.2418762811825932e+00 -6.1721764538672677e+00 -5.7816371875919010e+00 0 0 -1
128 36 10 -8.3399999999999996e-01 6.1259383795994413e+00 -1.1910958178044847e+01 -9.5523874187079585e+00 -1 2 0
1693 557 4 4.1699999999999998e-01 9.3501498287164804e+00 -9.8498015488761030e+00 -9.9747996461033246e+00 -1 0 1
2190 723 4 4.1699999999999998e-01 1.3545044208845438e+01 -1.3773299371054383e+01 -7.2642037437299836e+00 1 1 0
1317 432 4 4.1699999999999998e-01 1.1590987094880463e+01 -1.1241317823343145e+01 -8.7442314605391900e+00 0 0 1
338 106 10 -8.3399999999999996e-01 1.1354991656531707e+01 1.2676932672199262e+01 -1.2694155982979616e+01 0 -1 0
339 106 4 4.1699999999999998e-01 1.1241288806955774e+01 1.2469755337325063e+01 -1.3589140643155908e+01 0 -1 0
1794 591 4 4.1699999999999998e-01 7.0785034454208091e+00 -7.5178770414410812e+00 -9.1984869974712922e+00 0 0 0
1363 447 4 4.1699999999999998e-01 5.9330059899436467e+00 1.3558333637277803e+01 -7.2194287371852246e+00 0 0 2
1361 447 10 -8.3399999999999996e-01 5.0373571002887463e+00 1.3272694353652790e+01 -7.4012640948757440e+00 0 0 2
1362 447 4 4.1699999999999998e-01 4.9398586638030384e+00 1.3543069633658328e+01 -8.3263902268037242e+00 0 0 2
2016 665 4 4.1699999999999998e-01 1.1812169153226330e+01 -1.3662590548223585e+01 -1.1416561414185388e+01 -1 3 1
2015 665 10 -8.3399999999999996e-01 1.1847796600250023e+01 -1.3279796640859386e+01 -1.0574461956268774e+01 -1 3 1
121 33 4 4.1699999999999998e-01 1.0183775719519053e+01 -1.3092945816772328e+01 -1.0276853430680260e+01 0 1 0
2189 723 10 -8.3399999999999996e-01 1.3269864349904415e+01 1.3523526543380536e+01 -6.5224927904586041e+00 1 0 0
496 158 4 4.1699999999999998e-01 9.7527087393260263e+00 -8.9365984209629019e+00 -5.7002846561589298e+00 -1 1 0
495 158 4 4.1699999999999998e-01 9.9414654067810506e+00 -1.0195096254250020e+01 -6.4018604881849130e+00 -1 1 0
494 158 10 -8.3399999999999996e-01 9.5581711673977967e+00 -9.8909077606148443e+00 -5.5774880538147364e+00 -1 1 0
2251 743 4 4.1699999999999998e-01 6.6230137107430505e+00 -1.0698723996296382e+01 -6.3515819512808207e+00 1 1 0
2249 743 10 -8.3399999999999996e-01 6.8908927626692407e+00 -1.1237984381058217e+01 -7.0511936966388093e+00 1 1 0
880 286 4 4.1699999999999998e-01 6.6753145297923790e+00 -8.6340967386827945e+00 -5.0900311678819818e+00 -1 1 -1
878 286 10 -8.3399999999999996e-01 6.8656020629554479e+00 -9.5012957658470363e+00 -4.7017553397617551e+00 -1 1 -1
879 286 4 4.1699999999999998e-01 7.7992292959559482e+00 -9.7489763787775772e+00 -5.0121441123513097e+00 -1 1 -1
7 2 8 -4.6999999999999997e-01 8.9099625736712706e+00 -1.2423653432096462e+01 1.2233120396855183e+01 0 0 0
9 2 6 7.0000000000000007e-02 8.6490976725467430e+00 -1.1644066687191046e+01 1.3410458501194009e+01 0 0 0
1389 456 4 4.1699999999999998e-01 5.2995361881076821e+00 -1.1113378024241801e+01 -1.1469670937577272e+01 0 1 -1
1388 456 10 -8.3399999999999996e-01 5.1669293528839386e+00 -1.0222976054123626e+01 -1.1806070627648642e+01 0 1 -1
20 2 2 8.9999999999999997e-02 1.0792860780697341e+01 -7.7122473666206801e+00 -1.3420132076121661e+01 0 0 1
19 2 7 -1.1000000000000000e-01 1.1003900630753270e+01 -8.8131345949297106e+00 -1.3436122379361015e+01 0 0 1
17 2 8 -4.6999999999999997e-01 9.7293947243225229e+00 -9.6065264497910334e+00 -1.3525153927905286e+01 0 0 1
18 2 1 3.1000000000000000e-01 8.8929934448221477e+00 -9.1659531281685993e+00 -1.3229466858844798e+01 0 0 1
10 2 3 8.9999999999999997e-02 7.8636044314401037e+00 -1.0930229823981616e+01 1.3316503814681562e+01 0 0 0
21 2 2 8.9999999999999997e-02 1.1646921555997610e+01 -8.9990485228829584e+00 1.3591865542775883e+01 0 0 0
1795 591 4 4.1699999999999998e-01 6.7478270901076431e+00 -9.0231049566488988e+00 -9.2877031330569757e+00 0 0 0
918 299 4 4.1699999999999998e-01 1.0491016564948266e+01 -6.4223867831577168e+00 -1.0630169476928019e+01 0 0 0
917 299 10 -8.3399999999999996e-01 9.7644244174516910e+00 -6.1869574173294968e+00 -1.1216341948637380e+01 0 0 0
1692 557 4 4.1699999999999998e-01 8.7181756421738275e+00 -8.9078131316058240e+00 -1.0825143710795871e+01 -1 0 1
1691 557 10 -8.3399999999999996e-01 8.4992859399980585e+00 -9.6179262369947338e+00 -1.0214838084694380e+01 -1 0 1
604 194 4 4.1699999999999998e-01 7.7249468904152234e+00 -6.8845382493335254e+00 1.2818030093843722e+01 -1 -1 0
2111 697 10 -8.3399999999999996e-01 1.1982375290822121e+01 -6.2430910237346193e+00 -9.4300237737641215e+00 -1 0 1
919 299 4 4.1699999999999998e-01 1.0230912715908586e+01 -5.5772867873766643e+00 -1.1854833364050542e+01 0 0 0
1807 595 4 4.1699999999999998e-01 1.1072612601695882e+01 -6.4520470843767219e+00 1.1650919214815941e+01 1 -2 1
2113 697 4 4.1699999999999998e-01 1.1724387614970306e+01 -5.3142177327705777e+00 -9.1881016935774156e+00 -1 0 1
2112 697 4 4.1699999999999998e-01 1.2995456489786106e+01 -6.1071377760077530e+00 -9.4064045066300466e+00 -1 0 1